Title: bioz netlist
Date: Mon Nov 02 19:03:54 2020
Plotname: AC Analysis
Flags: complex forward log
No. Variables: 48969
No. Points:            1
Offset:   0.0000000000000000e+000
Command: Linear Technology Corporation LTspice XVII
Variables:
	0	frequency	frequency
	1	V(1)	voltage
	2	V(2)	voltage
	3	V(1_2)	voltage
	4	V(561)	voltage
	5	V(562)	voltage
	6	V(561_562)	voltage
	7	V(1121)	voltage
	8	V(1122)	voltage
	9	V(1121_1122)	voltage
	10	V(1681)	voltage
	11	V(1682)	voltage
	12	V(1681_1682)	voltage
	13	V(2241)	voltage
	14	V(2242)	voltage
	15	V(2241_2242)	voltage
	16	V(2801)	voltage
	17	V(2802)	voltage
	18	V(2801_2802)	voltage
	19	V(3361)	voltage
	20	V(3362)	voltage
	21	V(3361_3362)	voltage
	22	V(3)	voltage
	23	V(2_3)	voltage
	24	V(563)	voltage
	25	V(562_563)	voltage
	26	V(1123)	voltage
	27	V(1122_1123)	voltage
	28	V(1683)	voltage
	29	V(1682_1683)	voltage
	30	V(2243)	voltage
	31	V(2242_2243)	voltage
	32	V(2803)	voltage
	33	V(2802_2803)	voltage
	34	V(3363)	voltage
	35	V(3362_3363)	voltage
	36	V(4)	voltage
	37	V(3_4)	voltage
	38	V(564)	voltage
	39	V(563_564)	voltage
	40	V(1124)	voltage
	41	V(1123_1124)	voltage
	42	V(1684)	voltage
	43	V(1683_1684)	voltage
	44	V(2244)	voltage
	45	V(2243_2244)	voltage
	46	V(2804)	voltage
	47	V(2803_2804)	voltage
	48	V(3364)	voltage
	49	V(3363_3364)	voltage
	50	V(5)	voltage
	51	V(4_5)	voltage
	52	V(565)	voltage
	53	V(564_565)	voltage
	54	V(1125)	voltage
	55	V(1124_1125)	voltage
	56	V(1685)	voltage
	57	V(1684_1685)	voltage
	58	V(2245)	voltage
	59	V(2244_2245)	voltage
	60	V(2805)	voltage
	61	V(2804_2805)	voltage
	62	V(3365)	voltage
	63	V(3364_3365)	voltage
	64	V(6)	voltage
	65	V(5_6)	voltage
	66	V(566)	voltage
	67	V(565_566)	voltage
	68	V(1126)	voltage
	69	V(1125_1126)	voltage
	70	V(1686)	voltage
	71	V(1685_1686)	voltage
	72	V(2246)	voltage
	73	V(2245_2246)	voltage
	74	V(2806)	voltage
	75	V(2805_2806)	voltage
	76	V(3366)	voltage
	77	V(3365_3366)	voltage
	78	V(7)	voltage
	79	V(6_7)	voltage
	80	V(567)	voltage
	81	V(566_567)	voltage
	82	V(1127)	voltage
	83	V(1126_1127)	voltage
	84	V(1687)	voltage
	85	V(1686_1687)	voltage
	86	V(2247)	voltage
	87	V(2246_2247)	voltage
	88	V(2807)	voltage
	89	V(2806_2807)	voltage
	90	V(3367)	voltage
	91	V(3366_3367)	voltage
	92	V(8)	voltage
	93	V(7_8)	voltage
	94	V(568)	voltage
	95	V(567_568)	voltage
	96	V(1128)	voltage
	97	V(1127_1128)	voltage
	98	V(1688)	voltage
	99	V(1687_1688)	voltage
	100	V(2248)	voltage
	101	V(2247_2248)	voltage
	102	V(2808)	voltage
	103	V(2807_2808)	voltage
	104	V(3368)	voltage
	105	V(3367_3368)	voltage
	106	V(9)	voltage
	107	V(8_9)	voltage
	108	V(569)	voltage
	109	V(568_569)	voltage
	110	V(1129)	voltage
	111	V(1128_1129)	voltage
	112	V(1689)	voltage
	113	V(1688_1689)	voltage
	114	V(2249)	voltage
	115	V(2248_2249)	voltage
	116	V(2809)	voltage
	117	V(2808_2809)	voltage
	118	V(3369)	voltage
	119	V(3368_3369)	voltage
	120	V(10)	voltage
	121	V(9_10)	voltage
	122	V(570)	voltage
	123	V(569_570)	voltage
	124	V(1130)	voltage
	125	V(1129_1130)	voltage
	126	V(1690)	voltage
	127	V(1689_1690)	voltage
	128	V(2250)	voltage
	129	V(2249_2250)	voltage
	130	V(2810)	voltage
	131	V(2809_2810)	voltage
	132	V(3370)	voltage
	133	V(3369_3370)	voltage
	134	V(11)	voltage
	135	V(10_11)	voltage
	136	V(571)	voltage
	137	V(570_571)	voltage
	138	V(1131)	voltage
	139	V(1130_1131)	voltage
	140	V(1691)	voltage
	141	V(1690_1691)	voltage
	142	V(2251)	voltage
	143	V(2250_2251)	voltage
	144	V(2811)	voltage
	145	V(2810_2811)	voltage
	146	V(3371)	voltage
	147	V(3370_3371)	voltage
	148	V(12)	voltage
	149	V(11_12)	voltage
	150	V(572)	voltage
	151	V(571_572)	voltage
	152	V(1132)	voltage
	153	V(1131_1132)	voltage
	154	V(1692)	voltage
	155	V(1691_1692)	voltage
	156	V(2252)	voltage
	157	V(2251_2252)	voltage
	158	V(2812)	voltage
	159	V(2811_2812)	voltage
	160	V(3372)	voltage
	161	V(3371_3372)	voltage
	162	V(13)	voltage
	163	V(12_13)	voltage
	164	V(573)	voltage
	165	V(572_573)	voltage
	166	V(1133)	voltage
	167	V(1132_1133)	voltage
	168	V(1693)	voltage
	169	V(1692_1693)	voltage
	170	V(2253)	voltage
	171	V(2252_2253)	voltage
	172	V(2813)	voltage
	173	V(2812_2813)	voltage
	174	V(3373)	voltage
	175	V(3372_3373)	voltage
	176	V(14)	voltage
	177	V(13_14)	voltage
	178	V(574)	voltage
	179	V(573_574)	voltage
	180	V(1134)	voltage
	181	V(1133_1134)	voltage
	182	V(1694)	voltage
	183	V(1693_1694)	voltage
	184	V(2254)	voltage
	185	V(2253_2254)	voltage
	186	V(2814)	voltage
	187	V(2813_2814)	voltage
	188	V(3374)	voltage
	189	V(3373_3374)	voltage
	190	V(15)	voltage
	191	V(14_15)	voltage
	192	V(575)	voltage
	193	V(574_575)	voltage
	194	V(1135)	voltage
	195	V(1134_1135)	voltage
	196	V(1695)	voltage
	197	V(1694_1695)	voltage
	198	V(2255)	voltage
	199	V(2254_2255)	voltage
	200	V(2815)	voltage
	201	V(2814_2815)	voltage
	202	V(3375)	voltage
	203	V(3374_3375)	voltage
	204	V(16)	voltage
	205	V(15_16)	voltage
	206	V(576)	voltage
	207	V(575_576)	voltage
	208	V(1136)	voltage
	209	V(1135_1136)	voltage
	210	V(1696)	voltage
	211	V(1695_1696)	voltage
	212	V(2256)	voltage
	213	V(2255_2256)	voltage
	214	V(2816)	voltage
	215	V(2815_2816)	voltage
	216	V(3376)	voltage
	217	V(3375_3376)	voltage
	218	V(17)	voltage
	219	V(18)	voltage
	220	V(17_18)	voltage
	221	V(577)	voltage
	222	V(578)	voltage
	223	V(577_578)	voltage
	224	V(1137)	voltage
	225	V(1138)	voltage
	226	V(1137_1138)	voltage
	227	V(1697)	voltage
	228	V(1698)	voltage
	229	V(1697_1698)	voltage
	230	V(2257)	voltage
	231	V(2258)	voltage
	232	V(2257_2258)	voltage
	233	V(2817)	voltage
	234	V(2818)	voltage
	235	V(2817_2818)	voltage
	236	V(3377)	voltage
	237	V(3378)	voltage
	238	V(3377_3378)	voltage
	239	V(19)	voltage
	240	V(18_19)	voltage
	241	V(579)	voltage
	242	V(578_579)	voltage
	243	V(1139)	voltage
	244	V(1138_1139)	voltage
	245	V(1699)	voltage
	246	V(1698_1699)	voltage
	247	V(2259)	voltage
	248	V(2258_2259)	voltage
	249	V(2819)	voltage
	250	V(2818_2819)	voltage
	251	V(3379)	voltage
	252	V(3378_3379)	voltage
	253	V(20)	voltage
	254	V(19_20)	voltage
	255	V(580)	voltage
	256	V(579_580)	voltage
	257	V(1140)	voltage
	258	V(1139_1140)	voltage
	259	V(1700)	voltage
	260	V(1699_1700)	voltage
	261	V(2260)	voltage
	262	V(2259_2260)	voltage
	263	V(2820)	voltage
	264	V(2819_2820)	voltage
	265	V(3380)	voltage
	266	V(3379_3380)	voltage
	267	V(21)	voltage
	268	V(20_21)	voltage
	269	V(581)	voltage
	270	V(580_581)	voltage
	271	V(1141)	voltage
	272	V(1140_1141)	voltage
	273	V(1701)	voltage
	274	V(1700_1701)	voltage
	275	V(2261)	voltage
	276	V(2260_2261)	voltage
	277	V(2821)	voltage
	278	V(2820_2821)	voltage
	279	V(3381)	voltage
	280	V(3380_3381)	voltage
	281	V(22)	voltage
	282	V(21_22)	voltage
	283	V(582)	voltage
	284	V(581_582)	voltage
	285	V(1142)	voltage
	286	V(1141_1142)	voltage
	287	V(1702)	voltage
	288	V(1701_1702)	voltage
	289	V(2262)	voltage
	290	V(2261_2262)	voltage
	291	V(2822)	voltage
	292	V(2821_2822)	voltage
	293	V(3382)	voltage
	294	V(3381_3382)	voltage
	295	V(23)	voltage
	296	V(22_23)	voltage
	297	V(583)	voltage
	298	V(582_583)	voltage
	299	V(1143)	voltage
	300	V(1142_1143)	voltage
	301	V(1703)	voltage
	302	V(1702_1703)	voltage
	303	V(2263)	voltage
	304	V(2262_2263)	voltage
	305	V(2823)	voltage
	306	V(2822_2823)	voltage
	307	V(3383)	voltage
	308	V(3382_3383)	voltage
	309	V(24)	voltage
	310	V(23_24)	voltage
	311	V(584)	voltage
	312	V(583_584)	voltage
	313	V(1144)	voltage
	314	V(1143_1144)	voltage
	315	V(1704)	voltage
	316	V(1703_1704)	voltage
	317	V(2264)	voltage
	318	V(2263_2264)	voltage
	319	V(2824)	voltage
	320	V(2823_2824)	voltage
	321	V(3384)	voltage
	322	V(3383_3384)	voltage
	323	V(25)	voltage
	324	V(24_25)	voltage
	325	V(585)	voltage
	326	V(584_585)	voltage
	327	V(1145)	voltage
	328	V(1144_1145)	voltage
	329	V(1705)	voltage
	330	V(1704_1705)	voltage
	331	V(2265)	voltage
	332	V(2264_2265)	voltage
	333	V(2825)	voltage
	334	V(2824_2825)	voltage
	335	V(3385)	voltage
	336	V(3384_3385)	voltage
	337	V(26)	voltage
	338	V(25_26)	voltage
	339	V(586)	voltage
	340	V(585_586)	voltage
	341	V(1146)	voltage
	342	V(1145_1146)	voltage
	343	V(1706)	voltage
	344	V(1705_1706)	voltage
	345	V(2266)	voltage
	346	V(2265_2266)	voltage
	347	V(2826)	voltage
	348	V(2825_2826)	voltage
	349	V(3386)	voltage
	350	V(3385_3386)	voltage
	351	V(27)	voltage
	352	V(26_27)	voltage
	353	V(587)	voltage
	354	V(586_587)	voltage
	355	V(1147)	voltage
	356	V(1146_1147)	voltage
	357	V(1707)	voltage
	358	V(1706_1707)	voltage
	359	V(2267)	voltage
	360	V(2266_2267)	voltage
	361	V(2827)	voltage
	362	V(2826_2827)	voltage
	363	V(3387)	voltage
	364	V(3386_3387)	voltage
	365	V(28)	voltage
	366	V(27_28)	voltage
	367	V(588)	voltage
	368	V(587_588)	voltage
	369	V(1148)	voltage
	370	V(1147_1148)	voltage
	371	V(1708)	voltage
	372	V(1707_1708)	voltage
	373	V(2268)	voltage
	374	V(2267_2268)	voltage
	375	V(2828)	voltage
	376	V(2827_2828)	voltage
	377	V(3388)	voltage
	378	V(3387_3388)	voltage
	379	V(29)	voltage
	380	V(28_29)	voltage
	381	V(589)	voltage
	382	V(588_589)	voltage
	383	V(1149)	voltage
	384	V(1148_1149)	voltage
	385	V(1709)	voltage
	386	V(1708_1709)	voltage
	387	V(2269)	voltage
	388	V(2268_2269)	voltage
	389	V(2829)	voltage
	390	V(2828_2829)	voltage
	391	V(3389)	voltage
	392	V(3388_3389)	voltage
	393	V(30)	voltage
	394	V(29_30)	voltage
	395	V(590)	voltage
	396	V(589_590)	voltage
	397	V(1150)	voltage
	398	V(1149_1150)	voltage
	399	V(1710)	voltage
	400	V(1709_1710)	voltage
	401	V(2270)	voltage
	402	V(2269_2270)	voltage
	403	V(2830)	voltage
	404	V(2829_2830)	voltage
	405	V(3390)	voltage
	406	V(3389_3390)	voltage
	407	V(31)	voltage
	408	V(30_31)	voltage
	409	V(591)	voltage
	410	V(590_591)	voltage
	411	V(1151)	voltage
	412	V(1150_1151)	voltage
	413	V(1711)	voltage
	414	V(1710_1711)	voltage
	415	V(2271)	voltage
	416	V(2270_2271)	voltage
	417	V(2831)	voltage
	418	V(2830_2831)	voltage
	419	V(3391)	voltage
	420	V(3390_3391)	voltage
	421	V(32)	voltage
	422	V(31_32)	voltage
	423	V(592)	voltage
	424	V(591_592)	voltage
	425	V(1152)	voltage
	426	V(1151_1152)	voltage
	427	V(1712)	voltage
	428	V(1711_1712)	voltage
	429	V(2272)	voltage
	430	V(2271_2272)	voltage
	431	V(2832)	voltage
	432	V(2831_2832)	voltage
	433	V(3392)	voltage
	434	V(3391_3392)	voltage
	435	V(33)	voltage
	436	V(34)	voltage
	437	V(33_34)	voltage
	438	V(593)	voltage
	439	V(594)	voltage
	440	V(593_594)	voltage
	441	V(1153)	voltage
	442	V(1154)	voltage
	443	V(1153_1154)	voltage
	444	V(1713)	voltage
	445	V(1714)	voltage
	446	V(1713_1714)	voltage
	447	V(2273)	voltage
	448	V(2274)	voltage
	449	V(2273_2274)	voltage
	450	V(2833)	voltage
	451	V(2834)	voltage
	452	V(2833_2834)	voltage
	453	V(3393)	voltage
	454	V(3394)	voltage
	455	V(3393_3394)	voltage
	456	V(35)	voltage
	457	V(34_35)	voltage
	458	V(595)	voltage
	459	V(594_595)	voltage
	460	V(1155)	voltage
	461	V(1154_1155)	voltage
	462	V(1715)	voltage
	463	V(1714_1715)	voltage
	464	V(2275)	voltage
	465	V(2274_2275)	voltage
	466	V(2835)	voltage
	467	V(2834_2835)	voltage
	468	V(3395)	voltage
	469	V(3394_3395)	voltage
	470	V(36)	voltage
	471	V(35_36)	voltage
	472	V(596)	voltage
	473	V(595_596)	voltage
	474	V(1156)	voltage
	475	V(1155_1156)	voltage
	476	V(1716)	voltage
	477	V(1715_1716)	voltage
	478	V(2276)	voltage
	479	V(2275_2276)	voltage
	480	V(2836)	voltage
	481	V(2835_2836)	voltage
	482	V(3396)	voltage
	483	V(3395_3396)	voltage
	484	V(37)	voltage
	485	V(36_37)	voltage
	486	V(597)	voltage
	487	V(596_597)	voltage
	488	V(1157)	voltage
	489	V(1156_1157)	voltage
	490	V(1717)	voltage
	491	V(1716_1717)	voltage
	492	V(2277)	voltage
	493	V(2276_2277)	voltage
	494	V(2837)	voltage
	495	V(2836_2837)	voltage
	496	V(3397)	voltage
	497	V(3396_3397)	voltage
	498	V(38)	voltage
	499	V(37_38)	voltage
	500	V(598)	voltage
	501	V(597_598)	voltage
	502	V(1158)	voltage
	503	V(1157_1158)	voltage
	504	V(1718)	voltage
	505	V(1717_1718)	voltage
	506	V(2278)	voltage
	507	V(2277_2278)	voltage
	508	V(2838)	voltage
	509	V(2837_2838)	voltage
	510	V(3398)	voltage
	511	V(3397_3398)	voltage
	512	V(39)	voltage
	513	V(38_39)	voltage
	514	V(599)	voltage
	515	V(598_599)	voltage
	516	V(1159)	voltage
	517	V(1158_1159)	voltage
	518	V(1719)	voltage
	519	V(1718_1719)	voltage
	520	V(2279)	voltage
	521	V(2278_2279)	voltage
	522	V(2839)	voltage
	523	V(2838_2839)	voltage
	524	V(3399)	voltage
	525	V(3398_3399)	voltage
	526	V(40)	voltage
	527	V(39_40)	voltage
	528	V(600)	voltage
	529	V(599_600)	voltage
	530	V(1160)	voltage
	531	V(1159_1160)	voltage
	532	V(1720)	voltage
	533	V(1719_1720)	voltage
	534	V(2280)	voltage
	535	V(2279_2280)	voltage
	536	V(2840)	voltage
	537	V(2839_2840)	voltage
	538	V(3400)	voltage
	539	V(3399_3400)	voltage
	540	V(41)	voltage
	541	V(40_41)	voltage
	542	V(601)	voltage
	543	V(600_601)	voltage
	544	V(1161)	voltage
	545	V(1160_1161)	voltage
	546	V(1721)	voltage
	547	V(1720_1721)	voltage
	548	V(2281)	voltage
	549	V(2280_2281)	voltage
	550	V(2841)	voltage
	551	V(2840_2841)	voltage
	552	V(3401)	voltage
	553	V(3400_3401)	voltage
	554	V(42)	voltage
	555	V(41_42)	voltage
	556	V(602)	voltage
	557	V(601_602)	voltage
	558	V(1162)	voltage
	559	V(1161_1162)	voltage
	560	V(1722)	voltage
	561	V(1721_1722)	voltage
	562	V(2282)	voltage
	563	V(2281_2282)	voltage
	564	V(2842)	voltage
	565	V(2841_2842)	voltage
	566	V(3402)	voltage
	567	V(3401_3402)	voltage
	568	V(43)	voltage
	569	V(42_43)	voltage
	570	V(603)	voltage
	571	V(602_603)	voltage
	572	V(1163)	voltage
	573	V(1162_1163)	voltage
	574	V(1723)	voltage
	575	V(1722_1723)	voltage
	576	V(2283)	voltage
	577	V(2282_2283)	voltage
	578	V(2843)	voltage
	579	V(2842_2843)	voltage
	580	V(3403)	voltage
	581	V(3402_3403)	voltage
	582	V(44)	voltage
	583	V(43_44)	voltage
	584	V(604)	voltage
	585	V(603_604)	voltage
	586	V(1164)	voltage
	587	V(1163_1164)	voltage
	588	V(1724)	voltage
	589	V(1723_1724)	voltage
	590	V(2284)	voltage
	591	V(2283_2284)	voltage
	592	V(2844)	voltage
	593	V(2843_2844)	voltage
	594	V(3404)	voltage
	595	V(3403_3404)	voltage
	596	V(45)	voltage
	597	V(44_45)	voltage
	598	V(605)	voltage
	599	V(604_605)	voltage
	600	V(1165)	voltage
	601	V(1164_1165)	voltage
	602	V(1725)	voltage
	603	V(1724_1725)	voltage
	604	V(2285)	voltage
	605	V(2284_2285)	voltage
	606	V(2845)	voltage
	607	V(2844_2845)	voltage
	608	V(3405)	voltage
	609	V(3404_3405)	voltage
	610	V(46)	voltage
	611	V(45_46)	voltage
	612	V(606)	voltage
	613	V(605_606)	voltage
	614	V(1166)	voltage
	615	V(1165_1166)	voltage
	616	V(1726)	voltage
	617	V(1725_1726)	voltage
	618	V(2286)	voltage
	619	V(2285_2286)	voltage
	620	V(2846)	voltage
	621	V(2845_2846)	voltage
	622	V(3406)	voltage
	623	V(3405_3406)	voltage
	624	V(47)	voltage
	625	V(46_47)	voltage
	626	V(607)	voltage
	627	V(606_607)	voltage
	628	V(1167)	voltage
	629	V(1166_1167)	voltage
	630	V(1727)	voltage
	631	V(1726_1727)	voltage
	632	V(2287)	voltage
	633	V(2286_2287)	voltage
	634	V(2847)	voltage
	635	V(2846_2847)	voltage
	636	V(3407)	voltage
	637	V(3406_3407)	voltage
	638	V(48)	voltage
	639	V(47_48)	voltage
	640	V(608)	voltage
	641	V(607_608)	voltage
	642	V(1168)	voltage
	643	V(1167_1168)	voltage
	644	V(1728)	voltage
	645	V(1727_1728)	voltage
	646	V(2288)	voltage
	647	V(2287_2288)	voltage
	648	V(2848)	voltage
	649	V(2847_2848)	voltage
	650	V(3408)	voltage
	651	V(3407_3408)	voltage
	652	V(49)	voltage
	653	V(50)	voltage
	654	V(49_50)	voltage
	655	V(609)	voltage
	656	V(610)	voltage
	657	V(609_610)	voltage
	658	V(1169)	voltage
	659	V(1170)	voltage
	660	V(1169_1170)	voltage
	661	V(1729)	voltage
	662	V(1730)	voltage
	663	V(1729_1730)	voltage
	664	V(2289)	voltage
	665	V(2290)	voltage
	666	V(2289_2290)	voltage
	667	V(2849)	voltage
	668	V(2850)	voltage
	669	V(2849_2850)	voltage
	670	V(3409)	voltage
	671	V(3410)	voltage
	672	V(3409_3410)	voltage
	673	V(51)	voltage
	674	V(50_51)	voltage
	675	V(611)	voltage
	676	V(610_611)	voltage
	677	V(1171)	voltage
	678	V(1170_1171)	voltage
	679	V(1731)	voltage
	680	V(1730_1731)	voltage
	681	V(2291)	voltage
	682	V(2290_2291)	voltage
	683	V(2851)	voltage
	684	V(2850_2851)	voltage
	685	V(3411)	voltage
	686	V(3410_3411)	voltage
	687	V(52)	voltage
	688	V(51_52)	voltage
	689	V(612)	voltage
	690	V(611_612)	voltage
	691	V(1172)	voltage
	692	V(1171_1172)	voltage
	693	V(1732)	voltage
	694	V(1731_1732)	voltage
	695	V(2292)	voltage
	696	V(2291_2292)	voltage
	697	V(2852)	voltage
	698	V(2851_2852)	voltage
	699	V(3412)	voltage
	700	V(3411_3412)	voltage
	701	V(53)	voltage
	702	V(52_53)	voltage
	703	V(613)	voltage
	704	V(612_613)	voltage
	705	V(1173)	voltage
	706	V(1172_1173)	voltage
	707	V(1733)	voltage
	708	V(1732_1733)	voltage
	709	V(2293)	voltage
	710	V(2292_2293)	voltage
	711	V(2853)	voltage
	712	V(2852_2853)	voltage
	713	V(3413)	voltage
	714	V(3412_3413)	voltage
	715	V(54)	voltage
	716	V(53_54)	voltage
	717	V(614)	voltage
	718	V(613_614)	voltage
	719	V(1174)	voltage
	720	V(1173_1174)	voltage
	721	V(1734)	voltage
	722	V(1733_1734)	voltage
	723	V(2294)	voltage
	724	V(2293_2294)	voltage
	725	V(2854)	voltage
	726	V(2853_2854)	voltage
	727	V(3414)	voltage
	728	V(3413_3414)	voltage
	729	V(55)	voltage
	730	V(54_55)	voltage
	731	V(615)	voltage
	732	V(614_615)	voltage
	733	V(1175)	voltage
	734	V(1174_1175)	voltage
	735	V(1735)	voltage
	736	V(1734_1735)	voltage
	737	V(2295)	voltage
	738	V(2294_2295)	voltage
	739	V(2855)	voltage
	740	V(2854_2855)	voltage
	741	V(3415)	voltage
	742	V(3414_3415)	voltage
	743	V(56)	voltage
	744	V(55_56)	voltage
	745	V(616)	voltage
	746	V(615_616)	voltage
	747	V(1176)	voltage
	748	V(1175_1176)	voltage
	749	V(1736)	voltage
	750	V(1735_1736)	voltage
	751	V(2296)	voltage
	752	V(2295_2296)	voltage
	753	V(2856)	voltage
	754	V(2855_2856)	voltage
	755	V(3416)	voltage
	756	V(3415_3416)	voltage
	757	V(57)	voltage
	758	V(56_57)	voltage
	759	V(617)	voltage
	760	V(616_617)	voltage
	761	V(1177)	voltage
	762	V(1176_1177)	voltage
	763	V(1737)	voltage
	764	V(1736_1737)	voltage
	765	V(2297)	voltage
	766	V(2296_2297)	voltage
	767	V(2857)	voltage
	768	V(2856_2857)	voltage
	769	V(3417)	voltage
	770	V(3416_3417)	voltage
	771	V(58)	voltage
	772	V(57_58)	voltage
	773	V(618)	voltage
	774	V(617_618)	voltage
	775	V(1178)	voltage
	776	V(1177_1178)	voltage
	777	V(1738)	voltage
	778	V(1737_1738)	voltage
	779	V(2298)	voltage
	780	V(2297_2298)	voltage
	781	V(2858)	voltage
	782	V(2857_2858)	voltage
	783	V(3418)	voltage
	784	V(3417_3418)	voltage
	785	V(59)	voltage
	786	V(58_59)	voltage
	787	V(619)	voltage
	788	V(618_619)	voltage
	789	V(1179)	voltage
	790	V(1178_1179)	voltage
	791	V(1739)	voltage
	792	V(1738_1739)	voltage
	793	V(2299)	voltage
	794	V(2298_2299)	voltage
	795	V(2859)	voltage
	796	V(2858_2859)	voltage
	797	V(3419)	voltage
	798	V(3418_3419)	voltage
	799	V(60)	voltage
	800	V(59_60)	voltage
	801	V(620)	voltage
	802	V(619_620)	voltage
	803	V(1180)	voltage
	804	V(1179_1180)	voltage
	805	V(1740)	voltage
	806	V(1739_1740)	voltage
	807	V(2300)	voltage
	808	V(2299_2300)	voltage
	809	V(2860)	voltage
	810	V(2859_2860)	voltage
	811	V(3420)	voltage
	812	V(3419_3420)	voltage
	813	V(61)	voltage
	814	V(60_61)	voltage
	815	V(621)	voltage
	816	V(620_621)	voltage
	817	V(1181)	voltage
	818	V(1180_1181)	voltage
	819	V(1741)	voltage
	820	V(1740_1741)	voltage
	821	V(2301)	voltage
	822	V(2300_2301)	voltage
	823	V(2861)	voltage
	824	V(2860_2861)	voltage
	825	V(3421)	voltage
	826	V(3420_3421)	voltage
	827	V(62)	voltage
	828	V(61_62)	voltage
	829	V(622)	voltage
	830	V(621_622)	voltage
	831	V(1182)	voltage
	832	V(1181_1182)	voltage
	833	V(1742)	voltage
	834	V(1741_1742)	voltage
	835	V(2302)	voltage
	836	V(2301_2302)	voltage
	837	V(2862)	voltage
	838	V(2861_2862)	voltage
	839	V(3422)	voltage
	840	V(3421_3422)	voltage
	841	V(63)	voltage
	842	V(62_63)	voltage
	843	V(623)	voltage
	844	V(622_623)	voltage
	845	V(1183)	voltage
	846	V(1182_1183)	voltage
	847	V(1743)	voltage
	848	V(1742_1743)	voltage
	849	V(2303)	voltage
	850	V(2302_2303)	voltage
	851	V(2863)	voltage
	852	V(2862_2863)	voltage
	853	V(3423)	voltage
	854	V(3422_3423)	voltage
	855	V(64)	voltage
	856	V(63_64)	voltage
	857	V(624)	voltage
	858	V(623_624)	voltage
	859	V(1184)	voltage
	860	V(1183_1184)	voltage
	861	V(1744)	voltage
	862	V(1743_1744)	voltage
	863	V(2304)	voltage
	864	V(2303_2304)	voltage
	865	V(2864)	voltage
	866	V(2863_2864)	voltage
	867	V(3424)	voltage
	868	V(3423_3424)	voltage
	869	V(65)	voltage
	870	V(66)	voltage
	871	V(65_66)	voltage
	872	V(625)	voltage
	873	V(626)	voltage
	874	V(625_626)	voltage
	875	V(1185)	voltage
	876	V(1186)	voltage
	877	V(1185_1186)	voltage
	878	V(1745)	voltage
	879	V(1746)	voltage
	880	V(1745_1746)	voltage
	881	V(2305)	voltage
	882	V(2306)	voltage
	883	V(2305_2306)	voltage
	884	V(2865)	voltage
	885	V(2866)	voltage
	886	V(2865_2866)	voltage
	887	V(3425)	voltage
	888	V(3426)	voltage
	889	V(3425_3426)	voltage
	890	V(67)	voltage
	891	V(66_67)	voltage
	892	V(627)	voltage
	893	V(626_627)	voltage
	894	V(1187)	voltage
	895	V(1186_1187)	voltage
	896	V(1747)	voltage
	897	V(1746_1747)	voltage
	898	V(2307)	voltage
	899	V(2306_2307)	voltage
	900	V(2867)	voltage
	901	V(2866_2867)	voltage
	902	V(3427)	voltage
	903	V(3426_3427)	voltage
	904	V(68)	voltage
	905	V(67_68)	voltage
	906	V(628)	voltage
	907	V(627_628)	voltage
	908	V(1188)	voltage
	909	V(1187_1188)	voltage
	910	V(1748)	voltage
	911	V(1747_1748)	voltage
	912	V(2308)	voltage
	913	V(2307_2308)	voltage
	914	V(2868)	voltage
	915	V(2867_2868)	voltage
	916	V(3428)	voltage
	917	V(3427_3428)	voltage
	918	V(69)	voltage
	919	V(68_69)	voltage
	920	V(629)	voltage
	921	V(628_629)	voltage
	922	V(1189)	voltage
	923	V(1188_1189)	voltage
	924	V(1749)	voltage
	925	V(1748_1749)	voltage
	926	V(2309)	voltage
	927	V(2308_2309)	voltage
	928	V(2869)	voltage
	929	V(2868_2869)	voltage
	930	V(3429)	voltage
	931	V(3428_3429)	voltage
	932	V(70)	voltage
	933	V(69_70)	voltage
	934	V(630)	voltage
	935	V(629_630)	voltage
	936	V(1190)	voltage
	937	V(1189_1190)	voltage
	938	V(1750)	voltage
	939	V(1749_1750)	voltage
	940	V(2310)	voltage
	941	V(2309_2310)	voltage
	942	V(2870)	voltage
	943	V(2869_2870)	voltage
	944	V(3430)	voltage
	945	V(3429_3430)	voltage
	946	V(71)	voltage
	947	V(70_71)	voltage
	948	V(631)	voltage
	949	V(630_631)	voltage
	950	V(1191)	voltage
	951	V(1190_1191)	voltage
	952	V(1751)	voltage
	953	V(1750_1751)	voltage
	954	V(2311)	voltage
	955	V(2310_2311)	voltage
	956	V(2871)	voltage
	957	V(2870_2871)	voltage
	958	V(3431)	voltage
	959	V(3430_3431)	voltage
	960	V(72)	voltage
	961	V(71_72)	voltage
	962	V(632)	voltage
	963	V(631_632)	voltage
	964	V(1192)	voltage
	965	V(1191_1192)	voltage
	966	V(1752)	voltage
	967	V(1751_1752)	voltage
	968	V(2312)	voltage
	969	V(2311_2312)	voltage
	970	V(2872)	voltage
	971	V(2871_2872)	voltage
	972	V(3432)	voltage
	973	V(3431_3432)	voltage
	974	V(73)	voltage
	975	V(72_73)	voltage
	976	V(633)	voltage
	977	V(632_633)	voltage
	978	V(1193)	voltage
	979	V(1192_1193)	voltage
	980	V(1753)	voltage
	981	V(1752_1753)	voltage
	982	V(2313)	voltage
	983	V(2312_2313)	voltage
	984	V(2873)	voltage
	985	V(2872_2873)	voltage
	986	V(3433)	voltage
	987	V(3432_3433)	voltage
	988	V(74)	voltage
	989	V(73_74)	voltage
	990	V(634)	voltage
	991	V(633_634)	voltage
	992	V(1194)	voltage
	993	V(1193_1194)	voltage
	994	V(1754)	voltage
	995	V(1753_1754)	voltage
	996	V(2314)	voltage
	997	V(2313_2314)	voltage
	998	V(2874)	voltage
	999	V(2873_2874)	voltage
	1000	V(3434)	voltage
	1001	V(3433_3434)	voltage
	1002	V(75)	voltage
	1003	V(74_75)	voltage
	1004	V(635)	voltage
	1005	V(634_635)	voltage
	1006	V(1195)	voltage
	1007	V(1194_1195)	voltage
	1008	V(1755)	voltage
	1009	V(1754_1755)	voltage
	1010	V(2315)	voltage
	1011	V(2314_2315)	voltage
	1012	V(2875)	voltage
	1013	V(2874_2875)	voltage
	1014	V(3435)	voltage
	1015	V(3434_3435)	voltage
	1016	V(76)	voltage
	1017	V(75_76)	voltage
	1018	V(636)	voltage
	1019	V(635_636)	voltage
	1020	V(1196)	voltage
	1021	V(1195_1196)	voltage
	1022	V(1756)	voltage
	1023	V(1755_1756)	voltage
	1024	V(2316)	voltage
	1025	V(2315_2316)	voltage
	1026	V(2876)	voltage
	1027	V(2875_2876)	voltage
	1028	V(3436)	voltage
	1029	V(3435_3436)	voltage
	1030	V(77)	voltage
	1031	V(76_77)	voltage
	1032	V(637)	voltage
	1033	V(636_637)	voltage
	1034	V(1197)	voltage
	1035	V(1196_1197)	voltage
	1036	V(1757)	voltage
	1037	V(1756_1757)	voltage
	1038	V(2317)	voltage
	1039	V(2316_2317)	voltage
	1040	V(2877)	voltage
	1041	V(2876_2877)	voltage
	1042	V(3437)	voltage
	1043	V(3436_3437)	voltage
	1044	V(78)	voltage
	1045	V(77_78)	voltage
	1046	V(638)	voltage
	1047	V(637_638)	voltage
	1048	V(1198)	voltage
	1049	V(1197_1198)	voltage
	1050	V(1758)	voltage
	1051	V(1757_1758)	voltage
	1052	V(2318)	voltage
	1053	V(2317_2318)	voltage
	1054	V(2878)	voltage
	1055	V(2877_2878)	voltage
	1056	V(3438)	voltage
	1057	V(3437_3438)	voltage
	1058	V(79)	voltage
	1059	V(78_79)	voltage
	1060	V(639)	voltage
	1061	V(638_639)	voltage
	1062	V(1199)	voltage
	1063	V(1198_1199)	voltage
	1064	V(1759)	voltage
	1065	V(1758_1759)	voltage
	1066	V(2319)	voltage
	1067	V(2318_2319)	voltage
	1068	V(2879)	voltage
	1069	V(2878_2879)	voltage
	1070	V(3439)	voltage
	1071	V(3438_3439)	voltage
	1072	V(80)	voltage
	1073	V(79_80)	voltage
	1074	V(640)	voltage
	1075	V(639_640)	voltage
	1076	V(1200)	voltage
	1077	V(1199_1200)	voltage
	1078	V(1760)	voltage
	1079	V(1759_1760)	voltage
	1080	V(2320)	voltage
	1081	V(2319_2320)	voltage
	1082	V(2880)	voltage
	1083	V(2879_2880)	voltage
	1084	V(3440)	voltage
	1085	V(3439_3440)	voltage
	1086	V(81)	voltage
	1087	V(82)	voltage
	1088	V(81_82)	voltage
	1089	V(641)	voltage
	1090	V(642)	voltage
	1091	V(641_642)	voltage
	1092	V(1201)	voltage
	1093	V(1202)	voltage
	1094	V(1201_1202)	voltage
	1095	V(1761)	voltage
	1096	V(1762)	voltage
	1097	V(1761_1762)	voltage
	1098	V(2321)	voltage
	1099	V(2322)	voltage
	1100	V(2321_2322)	voltage
	1101	V(2881)	voltage
	1102	V(2882)	voltage
	1103	V(2881_2882)	voltage
	1104	V(3441)	voltage
	1105	V(3442)	voltage
	1106	V(3441_3442)	voltage
	1107	V(83)	voltage
	1108	V(82_83)	voltage
	1109	V(643)	voltage
	1110	V(642_643)	voltage
	1111	V(1203)	voltage
	1112	V(1202_1203)	voltage
	1113	V(1763)	voltage
	1114	V(1762_1763)	voltage
	1115	V(2323)	voltage
	1116	V(2322_2323)	voltage
	1117	V(2883)	voltage
	1118	V(2882_2883)	voltage
	1119	V(3443)	voltage
	1120	V(3442_3443)	voltage
	1121	V(84)	voltage
	1122	V(83_84)	voltage
	1123	V(644)	voltage
	1124	V(643_644)	voltage
	1125	V(1204)	voltage
	1126	V(1203_1204)	voltage
	1127	V(1764)	voltage
	1128	V(1763_1764)	voltage
	1129	V(2324)	voltage
	1130	V(2323_2324)	voltage
	1131	V(2884)	voltage
	1132	V(2883_2884)	voltage
	1133	V(3444)	voltage
	1134	V(3443_3444)	voltage
	1135	V(85)	voltage
	1136	V(84_85)	voltage
	1137	V(645)	voltage
	1138	V(644_645)	voltage
	1139	V(1205)	voltage
	1140	V(1204_1205)	voltage
	1141	V(1765)	voltage
	1142	V(1764_1765)	voltage
	1143	V(2325)	voltage
	1144	V(2324_2325)	voltage
	1145	V(2885)	voltage
	1146	V(2884_2885)	voltage
	1147	V(3445)	voltage
	1148	V(3444_3445)	voltage
	1149	V(86)	voltage
	1150	V(85_86)	voltage
	1151	V(646)	voltage
	1152	V(645_646)	voltage
	1153	V(1206)	voltage
	1154	V(1205_1206)	voltage
	1155	V(1766)	voltage
	1156	V(1765_1766)	voltage
	1157	V(2326)	voltage
	1158	V(2325_2326)	voltage
	1159	V(2886)	voltage
	1160	V(2885_2886)	voltage
	1161	V(3446)	voltage
	1162	V(3445_3446)	voltage
	1163	V(87)	voltage
	1164	V(86_87)	voltage
	1165	V(647)	voltage
	1166	V(646_647)	voltage
	1167	V(1207)	voltage
	1168	V(1206_1207)	voltage
	1169	V(1767)	voltage
	1170	V(1766_1767)	voltage
	1171	V(2327)	voltage
	1172	V(2326_2327)	voltage
	1173	V(2887)	voltage
	1174	V(2886_2887)	voltage
	1175	V(3447)	voltage
	1176	V(3446_3447)	voltage
	1177	V(88)	voltage
	1178	V(87_88)	voltage
	1179	V(648)	voltage
	1180	V(647_648)	voltage
	1181	V(1208)	voltage
	1182	V(1207_1208)	voltage
	1183	V(1768)	voltage
	1184	V(1767_1768)	voltage
	1185	V(2328)	voltage
	1186	V(2327_2328)	voltage
	1187	V(2888)	voltage
	1188	V(2887_2888)	voltage
	1189	V(3448)	voltage
	1190	V(3447_3448)	voltage
	1191	V(89)	voltage
	1192	V(88_89)	voltage
	1193	V(649)	voltage
	1194	V(648_649)	voltage
	1195	V(1209)	voltage
	1196	V(1208_1209)	voltage
	1197	V(1769)	voltage
	1198	V(1768_1769)	voltage
	1199	V(2329)	voltage
	1200	V(2328_2329)	voltage
	1201	V(2889)	voltage
	1202	V(2888_2889)	voltage
	1203	V(3449)	voltage
	1204	V(3448_3449)	voltage
	1205	V(90)	voltage
	1206	V(89_90)	voltage
	1207	V(650)	voltage
	1208	V(649_650)	voltage
	1209	V(1210)	voltage
	1210	V(1209_1210)	voltage
	1211	V(1770)	voltage
	1212	V(1769_1770)	voltage
	1213	V(2330)	voltage
	1214	V(2329_2330)	voltage
	1215	V(2890)	voltage
	1216	V(2889_2890)	voltage
	1217	V(3450)	voltage
	1218	V(3449_3450)	voltage
	1219	V(91)	voltage
	1220	V(90_91)	voltage
	1221	V(651)	voltage
	1222	V(650_651)	voltage
	1223	V(1211)	voltage
	1224	V(1210_1211)	voltage
	1225	V(1771)	voltage
	1226	V(1770_1771)	voltage
	1227	V(2331)	voltage
	1228	V(2330_2331)	voltage
	1229	V(2891)	voltage
	1230	V(2890_2891)	voltage
	1231	V(3451)	voltage
	1232	V(3450_3451)	voltage
	1233	V(92)	voltage
	1234	V(91_92)	voltage
	1235	V(652)	voltage
	1236	V(651_652)	voltage
	1237	V(1212)	voltage
	1238	V(1211_1212)	voltage
	1239	V(1772)	voltage
	1240	V(1771_1772)	voltage
	1241	V(2332)	voltage
	1242	V(2331_2332)	voltage
	1243	V(2892)	voltage
	1244	V(2891_2892)	voltage
	1245	V(3452)	voltage
	1246	V(3451_3452)	voltage
	1247	V(93)	voltage
	1248	V(92_93)	voltage
	1249	V(653)	voltage
	1250	V(652_653)	voltage
	1251	V(1213)	voltage
	1252	V(1212_1213)	voltage
	1253	V(1773)	voltage
	1254	V(1772_1773)	voltage
	1255	V(2333)	voltage
	1256	V(2332_2333)	voltage
	1257	V(2893)	voltage
	1258	V(2892_2893)	voltage
	1259	V(3453)	voltage
	1260	V(3452_3453)	voltage
	1261	V(94)	voltage
	1262	V(93_94)	voltage
	1263	V(654)	voltage
	1264	V(653_654)	voltage
	1265	V(1214)	voltage
	1266	V(1213_1214)	voltage
	1267	V(1774)	voltage
	1268	V(1773_1774)	voltage
	1269	V(2334)	voltage
	1270	V(2333_2334)	voltage
	1271	V(2894)	voltage
	1272	V(2893_2894)	voltage
	1273	V(3454)	voltage
	1274	V(3453_3454)	voltage
	1275	V(95)	voltage
	1276	V(94_95)	voltage
	1277	V(655)	voltage
	1278	V(654_655)	voltage
	1279	V(1215)	voltage
	1280	V(1214_1215)	voltage
	1281	V(1775)	voltage
	1282	V(1774_1775)	voltage
	1283	V(2335)	voltage
	1284	V(2334_2335)	voltage
	1285	V(2895)	voltage
	1286	V(2894_2895)	voltage
	1287	V(3455)	voltage
	1288	V(3454_3455)	voltage
	1289	V(96)	voltage
	1290	V(95_96)	voltage
	1291	V(656)	voltage
	1292	V(655_656)	voltage
	1293	V(1216)	voltage
	1294	V(1215_1216)	voltage
	1295	V(1776)	voltage
	1296	V(1775_1776)	voltage
	1297	V(2336)	voltage